[
    {
        "Element": "Hydrogen",
        "Symbol": "H",
        "Atomic Number": 1,
        "Atomic Mass (u)": 1.008,
        "Density (g/cm³)": 0.00008988,
        "Melting Point (K)": 14.01,
        "Boiling Point (K)": 20.28,
        "Electronegativity": 2.20,
        "State at Room Temp": "Gas"
    },
    {
        "Element": "Helium",
        "Symbol": "He",
        "Atomic Number": 2,
        "Atomic Mass (u)": 4.0026,
        "Density (g/cm³)": 0.0001785,
        "Melting Point (K)": null,
        "Boiling Point (K)": null,
        "Electronegativity": null,
        "State at Room Temp": "Gas"
    },
    {
        "Element": "Lithium",
        "Symbol": "Li",
        "Atomic Number": 3,
        "Atomic Mass (u)": 6.94,
        "Density (g/cm³)": 0.534,
        "Melting Point (K)": 453.69,
        "Boiling Point (K)": 1615,
        "Electronegativity": 0.98,
        "State at Room Temp": "Solid"
    },
    {
        "Element": "Beryllium",
        "Symbol": "Be",
        "Atomic Number": 4,
        "Atomic Mass (u)": 9.0122,
        "Density (g/cm³)": 1.85,
        "Melting Point (K)": 1560,
        "Boiling Point (K)": 2742,
        "Electronegativity": 1.57,
        "State at Room Temp": "Solid"
    },
    {
        "Element": "Boron",
        "Symbol": "B",
        "Atomic Number": 5,
        "Atomic Mass (u)": 10.81,
        "Density (g/cm³)": 2.34,
        "Melting Point (K)": 2349,
        "Boiling Point (K)": 4200,
        "Electronegativity": 2.04,
        "State at Room Temp": "Solid"
    },
    {
        "Element": "Carbon",
        "Symbol": "C",
        "Atomic Number": 6,
        "Atomic Mass (u)": 12.011,
        "Density (g/cm³)": 2.267,
        "Melting Point (K)": 3800,
        "Boiling Point (K)": 4300,
        "Electronegativity": 2.55,
        "State at Room Temp": "Solid"
    },
    {
        "Element": "Nitrogen",
        "Symbol": "N",
        "Atomic Number": 7,
        "Atomic Mass (u)": 14.007,
        "Density (g/cm³)": 0.0012506,
        "Melting Point (K)": 63.15,
        "Boiling Point (K)": 77.36,
        "Electronegativity": 3.04,
        "State at Room Temp": "Gas"
    },
    {
        "Element": "Oxygen",
        "Symbol": "O",
        "Atomic Number": 8,
        "Atomic Mass (u)": 15.999,
        "Density (g/cm³)": 0.001429,
        "Melting Point (K)": 54.36,
        "Boiling Point (K)": 90.20,
        "Electronegativity": 3.44,
        "State at Room Temp": "Gas"
    },
    {
        "Element": "Fluorine",
        "Symbol": "F",
        "Atomic Number": 9,
        "Atomic Mass (u)": 18.998,
        "Density (g/cm³)": 0.001696,
        "Melting Point (K)": 53.48,
        "Boiling Point (K)": 85.03,
        "Electronegativity": 3.98,
        "State at Room Temp": "Gas"
    },
    {
        "Element": "Neon",
        "Symbol": "Ne",
        "Atomic Number": 10,
        "Atomic Mass (u)": 20.180,
        "Density (g/cm³)": 0.0008999,
        "Melting Point (K)": null,
        "Boiling Point (K)": null,
        "Electronegativity": null,
        "State at Room Temp": "Gas"
    }
]
